0 0 0 0 0 0 0 0 0 0
0.003 -0.00739663212435233 -0.018559585492228 -0.0110069948186528 -0.0038580310880829 -0.0126597150259067 -0.0258277202072539 -0.0022270725388601 -0.00683665803108808 -0.0244948186528497
0.006 -0.0147927461139896 -0.037119170984456 -0.0220142487046632 -0.00771165803108808 -0.0252253886010363 -0.0510686528497409 -0.00449235751295337 -0.0136282383419689 -0.0466943005181347
0.009 -0.0221891191709845 -0.0556774611398964 -0.033020725388601 -0.0115319948186528 -0.0370790155440414 -0.0718329015544042 -0.00682383419689119 -0.0204533678756477 -0.0668937823834197
0.012 -0.0295867875647668 -0.0742370466321244 -0.0440284974093264 -0.0153523316062176 -0.0489313471502591 -0.0925971502590673 -0.00922215025906736 -0.0273069948186528 -0.0851049222797927
0.015 -0.0369818652849741 -0.0927784974093264 -0.0550077720207254 -0.0192538860103627 -0.0601955958549223 -0.108699481865285 -0.0116869170984456 -0.0341774611398964 -0.101388601036269
0.018 -0.0438860103626943 -0.105006476683938 -0.0568354922279793 -0.0231567357512953 -0.0714559585492228 -0.124773316062176 -0.0142163212435233 -0.0410544041450777 -0.115847150259067
0.021 -0.0507888601036269 -0.117234455958549 -0.0586632124352332 -0.0271075129533679 -0.082220207253886 -0.137862694300518 -0.0168069948186529 -0.0479222797927461 -0.128620466321244
0.024 -0.0576930051813472 -0.129461139896373 -0.0604922279792746 -0.0310906735751295 -0.0926619170984456 -0.149002590673575 -0.0194676165803109 -0.054759067357513 -0.139533678756477
0.027 -0.0645971502590674 -0.141683937823834 -0.0623199481865285 -0.0350751295336788 -0.103103626943005 -0.160155440414508 -0.0221917098445596 -0.0615362694300518 -0.148860103626943
0.03 -0.0715012953367876 -0.153911917098446 -0.0641476683937824 -0.0390984455958549 -0.112510362694301 -0.166852331606218 -0.0249637305699482 -0.0682422279792746 -0.15699481865285
0.033 -0.0784054404145078 -0.166139896373057 -0.0659753886010363 -0.0431269430051813 -0.121834196891192 -0.173199481865285 -0.0277784974093264 -0.0748743523316062 -0.16410621761658
0.036 -0.0841373056994819 -0.172253886010363 -0.064059585492228 -0.0471541450777202 -0.131152849740933 -0.179533678756477 -0.0306515544041451 -0.0813419689119171 -0.169831606217617
0.039 -0.0896580310880829 -0.177253886010363 -0.0614715025906736 -0.0511373056994819 -0.139158031088083 -0.182137305699482 -0.0335531088082902 -0.087669689119171 -0.174766839378238
0.042 -0.0951787564766839 -0.182253886010363 -0.0588821243523316 -0.0551165803108808 -0.147046632124352 -0.184417098445596 -0.0364766839378238 -0.0938963730569948 -0.179145077720207
0.045 -0.100699481865285 -0.187253886010363 -0.0562927461139896 -0.0590958549222798 -0.154935233160622 -0.186709844559586 -0.0394287564766839 -0.0998186528497409 -0.182370466321244
0.048 -0.106220207253886 -0.192253886010363 -0.0537033678756477 -0.062970207253886 -0.161865284974093 -0.187487046632124 -0.0423795336787565 -0.105624352331606 -0.185259067357513
0.051 -0.111740932642487 -0.197253886010363 -0.0511139896373057 -0.0667629533678757 -0.168056994818653 -0.187111398963731 -0.045330310880829 -0.111172279792746 -0.187422279792746
0.054 -0.117261658031088 -0.202253886010363 -0.0485259067357513 -0.0705556994818653 -0.174248704663212 -0.186735751295337 -0.0482603626943005 -0.116502590673575 -0.189080310880829
0.057 -0.121848445595855 -0.205634715025907 -0.0458497409326425 -0.0743471502590674 -0.180440414507772 -0.186360103626943 -0.0511735751295337 -0.121630829015544 -0.19029792746114
0.06 -0.124497409326425 -0.205647668393782 -0.0429948186528497 -0.0778743523316062 -0.185142487046632 -0.185012953367876 -0.0540362694300518 -0.126470207253886 -0.190984455958549
0.063 -0.127146373056995 -0.205660621761658 -0.040139896373057 -0.0813406735751295 -0.189507772020725 -0.183445595854922 -0.056869170984456 -0.131139896373057 -0.191360103626943
0.066 -0.12979274611399 -0.205660621761658 -0.0372849740932642 -0.0848082901554404 -0.193873056994819 -0.181878238341969 -0.0596269430051814 -0.135518134715026 -0.191321243523316
0.069 -0.132448186528497 -0.205673575129534 -0.0344300518134715 -0.0882746113989637 -0.198238341968912 -0.180310880829016 -0.0623419689119171 -0.139715025906736 -0.191023316062176
0.072 -0.13509067357513 -0.205686528497409 -0.0315751295336788 -0.0914637305699482 -0.201450777202073 -0.178536269430052 -0.0649753886010363 -0.143665803108808 -0.190466321243523
0.075 -0.137746113989637 -0.205699481865285 -0.028720207253886 -0.0945 -0.204054404145078 -0.176658031088083 -0.0675349740932643 -0.147396373056995 -0.189676165803109
0.078 -0.140388601036269 -0.205712435233161 -0.0258652849740933 -0.0975349740932642 -0.206658031088083 -0.174779792746114 -0.0700414507772021 -0.150984455958549 -0.188782383419689
0.081 -0.143044041450777 -0.205725388601036 -0.0230103626943005 -0.100571243523316 -0.209248704663212 -0.172901554404145 -0.0724209844559585 -0.154248704663212 -0.187642487046632
0.084 -0.145142487046632 -0.205427461139896 -0.0202577720207254 -0.103597150259067 -0.211826424870466 -0.171010362694301 -0.074800518134715 -0.157512953367876 -0.186502590673575
0.087 -0.145349740932642 -0.204080310880829 -0.017860103626943 -0.106133419689119 -0.212966321243523 -0.169119170984456 -0.0769935233160622 -0.160362694300518 -0.185168393782383
0.09 -0.145556994818653 -0.202720207253886 -0.0154624352331606 -0.108669689119171 -0.214119170984456 -0.167227979274611 -0.0791761658031088 -0.163186528497409 -0.18380829015544
0.093 -0.145751295336788 -0.201373056994819 -0.0130660621761658 -0.11120725388601 -0.215259067357513 -0.165336787564767 -0.0812642487046632 -0.165816062176166 -0.18240932642487
0.096 -0.145958549222798 -0.200025906735751 -0.0106683937823834 -0.113743523316062 -0.216411917098446 -0.163458549222798 -0.0832435233160622 -0.168225388601036 -0.180932642487047
0.099 -0.146152849740933 -0.198678756476684 -0.00827111398963731 -0.116279792746114 -0.217551813471503 -0.161567357512953 -0.0852227979274611 -0.170634715025907 -0.179455958549223
0.102 -0.146360103626943 -0.197318652849741 -0.00587383419689119 -0.118326424870466 -0.217823834196891 -0.15970207253886 -0.0870310880829016 -0.172694300518135 -0.177927461139896
0.105 -0.146567357512953 -0.195971502590674 -0.00347655440414508 -0.120323834196891 -0.21800518134715 -0.157862694300518 -0.088809585492228 -0.174715025906736 -0.176386010362694
0.108 -0.146761658031088 -0.194624352331606 -0.00107918393782383 -0.122319948186529 -0.218186528497409 -0.156010362694301 -0.0905660621761658 -0.176683937823834 -0.174831606217617
0.111 -0.146968911917098 -0.193264248704663 0.00131813471502591 -0.124317357512953 -0.218380829015544 -0.154158031088083 -0.0921515544041451 -0.178341968911917 -0.173264248704663
0.114 -0.147176165803109 -0.191917098445596 0.00371541450777202 -0.126314766839378 -0.218562176165803 -0.152305699481865 -0.0937383419689119 -0.179987046632124 -0.171683937823834
0.117 -0.147072538860104 -0.190518134715026 0.00605673575129534 -0.128160621761658 -0.21860103626943 -0.150466321243523 -0.0952823834196891 -0.181567357512953 -0.170103626943005
0.12 -0.146373056994819 -0.189028497409326 0.00828678756476684 -0.129611398963731 -0.218277202072539 -0.148639896373057 -0.0966891191709845 -0.182875647668394 -0.168510362694301
0.123 -0.145673575129534 -0.187538860103627 0.0105168393782383 -0.131062176165803 -0.217966321243523 -0.146813471502591 -0.0980958549222798 -0.18419689119171 -0.166917098445596
0.126 -0.144974093264249 -0.186049222797927 0.0127468911917098 -0.132525906735751 -0.217642487046632 -0.144987046632124 -0.0994689119170985 -0.185453367875648 -0.165310880829016
0.129 -0.144287564766839 -0.184559585492228 0.0149766839378238 -0.133976683937824 -0.217318652849741 -0.143160621761658 -0.100709844559586 -0.186476683937824 -0.163704663212435
0.132 -0.143588082901554 -0.183056994818653 0.0172072538860104 -0.135427461139896 -0.21699481865285 -0.141334196891192 -0.101950777202073 -0.1875 -0.162098445595855
0.135 -0.142888601036269 -0.181567357512953 0.0194365284974093 -0.136826424870466 -0.216645077720207 -0.139507772020725 -0.103187823834197 -0.188510362694301 -0.160492227979275
0.138 -0.142189119170984 -0.180077720207254 0.0216670984455959 -0.137784974093264 -0.21610103626943 -0.137681347150259 -0.104277202072539 -0.189261658031088 -0.158873056994819
0.141 -0.141489637305699 -0.178588082901554 0.0238976683937824 -0.138743523316062 -0.215556994818653 -0.135841968911917 -0.105366580310881 -0.190012953367876 -0.157240932642487
0.144 -0.140790155440415 -0.177098445595855 0.0261269430051813 -0.139689119170984 -0.215 -0.134015544041451 -0.10645725388601 -0.190764248704663 -0.155621761658031
0.147 -0.140103626943005 -0.175608808290155 0.0283575129533679 -0.140647668393782 -0.214455958549223 -0.132189119170984 -0.107450777202073 -0.191360103626943 -0.154002590673575
0.15 -0.13940414507772 -0.17410621761658 0.0305880829015544 -0.141593264248705 -0.213911917098446 -0.130362694300518 -0.10840414507772 -0.191878238341969 -0.152357512953368
0.153 -0.138704663212435 -0.172616580310881 0.0328173575129534 -0.142551813471503 -0.213354922279793 -0.128528497409326 -0.10935621761658 -0.192396373056995 -0.150725388601036
0.156 -0.137914507772021 -0.171113989637306 0.0350466321243523 -0.143354922279793 -0.212772020725389 -0.126687823834197 -0.110281088082902 -0.192875647668394 -0.149093264248705
0.159 -0.137046632124352 -0.169598445595855 0.0372759067357513 -0.14389896373057 -0.212124352331606 -0.124829015544041 -0.111108808290155 -0.193186528497409 -0.147448186528497
0.162 -0.136165803108808 -0.168069948186529 0.0395038860103627 -0.144443005181347 -0.211476683937824 -0.122970207253886 -0.111936528497409 -0.193510362694301 -0.145790155440415
0.165 -0.13529792746114 -0.166554404145078 0.0417331606217617 -0.144987046632124 -0.210829015544041 -0.121111398963731 -0.112764248704663 -0.193834196891192 -0.144145077720207
0.168 -0.134430051813472 -0.165025906735751 0.0439624352331606 -0.145531088082902 -0.210181347150259 -0.119251295336788 -0.113524611398964 -0.194054404145078 -0.142474093264249
0.171 -0.133549222797927 -0.163510362694301 0.046190414507772 -0.146075129533679 -0.209533678756477 -0.117392487046632 -0.114238341968912 -0.194209844559586 -0.140816062176166
0.174 -0.132681347150259 -0.161981865284974 0.048419689119171 -0.146619170984456 -0.208886010362694 -0.115533678756477 -0.11495207253886 -0.194378238341969 -0.139145077720207
0.177 -0.131800518134715 -0.160466321243523 0.0506476683937824 -0.147150259067358 -0.208238341968912 -0.113672279792746 -0.115665803108808 -0.194533678756477 -0.137474093264249
0.18 -0.130932642487047 -0.158937823834197 0.0528769430051814 -0.147396373056995 -0.207538860103627 -0.111759067357513 -0.116295336787565 -0.194585492227979 -0.135777202072539
0.183 -0.130051813471503 -0.157422279792746 0.0551062176165803 -0.147642487046632 -0.206839378238342 -0.109844559585492 -0.11690414507772 -0.194611398963731 -0.134093264248705
0.186 -0.129182642487047 -0.15589378238342 0.0573341968911917 -0.147888601036269 -0.206126943005181 -0.107931347150259 -0.117514248704663 -0.194637305699482 -0.132396373056995
0.189 -0.128309585492228 -0.154378238341969 0.0595634715025907 -0.148134715025907 -0.205427461139896 -0.106016839378238 -0.118123056994819 -0.194650259067358 -0.130699481865285
0.192 -0.127436528497409 -0.152849740932642 0.0617914507772021 -0.148380829015544 -0.204727979274611 -0.104102331606218 -0.118650259067358 -0.194598445595855 -0.128984455958549
0.195 -0.126562176165803 -0.151334196891192 0.064020725388601 -0.148626943005181 -0.204028497409326 -0.102189119170984 -0.119163212435233 -0.194520725388601 -0.127264248704663
0.198 -0.125689119170984 -0.149805699481865 0.06625 -0.148873056994819 -0.203316062176166 -0.100274611398964 -0.119676165803109 -0.194443005181347 -0.125544041450777
0.201 -0.124778497409326 -0.148251295336788 0.0685401554404145 -0.149093264248705 -0.202616580310881 -0.0983523316062176 -0.120189119170984 -0.194365284974093 -0.123823834196891
0.204 -0.12384585492228 -0.146658031088083 0.0708704663212435 -0.149145077720207 -0.201865284974093 -0.0963626943005181 -0.120637305699482 -0.194235751295337 -0.122081606217617
0.207 -0.122911917098446 -0.145064766839378 0.0732007772020725 -0.149183937823834 -0.201113989637306 -0.0943730569948187 -0.121060880829016 -0.194080310880829 -0.120332901554404
0.21 -0.121977979274611 -0.143484455958549 0.0755323834196891 -0.149235751295337 -0.200362694300518 -0.0923834196891192 -0.121485751295337 -0.193924870466321 -0.118582901554404
0.213 -0.121045336787565 -0.141891191709845 0.0778626943005181 -0.149287564766839 -0.199611398963731 -0.0903937823834197 -0.121910621761658 -0.193769430051813 -0.116834196891192
0.216 -0.120111398963731 -0.140310880829016 0.0801930051813472 -0.149326424870466 -0.198860103626943 -0.0884028497409327 -0.122296632124352 -0.193588082901554 -0.115068652849741
0.219 -0.119177461139896 -0.138717616580311 0.0825246113989637 -0.149378238341969 -0.198108808290155 -0.0864132124352332 -0.122641191709845 -0.193380829015544 -0.113287564766839
0.222 -0.11824481865285 -0.137124352331606 0.0848549222797927 -0.149430051813471 -0.197357512953368 -0.0844235751295337 -0.122985751295337 -0.193173575129534 -0.11150518134715
0.225 -0.117310880829016 -0.135544041450777 0.0871852331606218 -0.149468911917098 -0.19660621761658 -0.0824339378238342 -0.123329015544041 -0.192966321243523 -0.109724093264249
0.228 -0.116376943005181 -0.133950777202073 0.0895155440414508 -0.149443005181347 -0.195829015544041 -0.0803886010362694 -0.123668393782383 -0.192746113989637 -0.107940414507772
0.231 -0.115444300518135 -0.132370466321244 0.0918471502590674 -0.149365284974093 -0.195038860103627 -0.0783044041450777 -0.123939119170984 -0.1925 -0.106124352331606
0.234 -0.114510362694301 -0.130777202072539 0.0941774611398964 -0.149274611398964 -0.194235751295337 -0.0762215025906736 -0.124208549222798 -0.192240932642487 -0.104306994818653
0.237 -0.113576424870466 -0.129189119170984 0.0965077720207254 -0.14919689119171 -0.193432642487047 -0.0741373056994819 -0.124479274611399 -0.191981865284974 -0.102490932642487
0.24 -0.112642487046632 -0.12760103626943 0.098839378238342 -0.14910621761658 -0.192642487046632 -0.0720544041450777 -0.124748704663212 -0.191735751295337 -0.100674870466321
0.243 -0.111709844559586 -0.126012953367876 0.101169689119171 -0.149028497409326 -0.191839378238342 -0.069970207253886 -0.124987046632124 -0.191463730569948 -0.0988406735751295
0.246 -0.110775906735751 -0.124424870466321 0.1035 -0.148937823834197 -0.191036269430052 -0.0678860103626943 -0.125190414507772 -0.191165803108808 -0.0969870466321243
0.249 -0.109841968911917 -0.122836787564767 0.105831606217617 -0.148860103626943 -0.190233160621762 -0.0658031088082902 -0.12539378238342 -0.190880829015544 -0.0951334196891192
0.252 -0.108865284974093 -0.121180051813472 0.108279792746114 -0.148769430051813 -0.189443005181347 -0.0637189119170985 -0.125597150259067 -0.19059585492228 -0.093279792746114
0.255 -0.107866580310881 -0.119488341968912 0.110787564766839 -0.148639896373057 -0.188613989637306 -0.0615816062176166 -0.125800518134715 -0.19029792746114 -0.0914261658031088
0.258 -0.106866580310881 -0.117796632124352 0.113295336787565 -0.148471502590674 -0.187759067357513 -0.0593873056994819 -0.125958549222798 -0.189987046632124 -0.0895427461139896
0.261 -0.105867875647668 -0.116104922279793 0.11580310880829 -0.148290155440415 -0.18690414507772 -0.0571943005181347 -0.126102331606218 -0.189676165803109 -0.08764896373057
0.264 -0.104869170984456 -0.114413212435233 0.118309585492228 -0.148108808290155 -0.186049222797927 -0.0550012953367876 -0.126246113989637 -0.189352331606218 -0.0857564766839378
0.267 -0.103870466321244 -0.112720207253886 0.120817357512953 -0.147940414507772 -0.18520725388601 -0.0528069948186529 -0.126389896373057 -0.189028497409326 -0.0838626943005181
0.27 -0.102870466321244 -0.111028497409326 0.123325129533679 -0.147759067357513 -0.184352331606218 -0.0506139896373057 -0.126532383419689 -0.188717616580311 -0.081970207253886
0.273 -0.101871761658031 -0.109336787564767 0.125832901554404 -0.147577720207254 -0.183497409326425 -0.0484209844559585 -0.126629533678756 -0.188367875647668 -0.0800401554404145
0.276 -0.100873056994819 -0.107645077720207 0.12834067357513 -0.14740932642487 -0.182642487046632 -0.0462266839378238 -0.126720207253886 -0.188031088082902 -0.0781062176165803
0.279 -0.0998743523316062 -0.105953367875648 0.130841968911917 -0.147227979274611 -0.181787564766839 -0.0440336787564767 -0.126812176165803 -0.187681347150259 -0.0761709844559586
0.282 -0.0988743523316062 -0.104261658031088 0.133354922279793 -0.147046632124352 -0.180932642487047 -0.0418406735751295 -0.126902849740933 -0.187331606217617 -0.0742370466321244
0.285 -0.0978756476683938 -0.102569948186529 0.135867875647668 -0.146813471502591 -0.180025906735751 -0.0395401554404145 -0.126993523316062 -0.18699481865285 -0.0723018134715026
0.288 -0.0968769430051814 -0.100878238341969 0.138367875647668 -0.146554404145078 -0.179119170984456 -0.0372215025906736 -0.127044041450777 -0.186619170984456 -0.070330310880829
0.291 -0.0958782383419689 -0.0991865284974093 0.140880829015544 -0.14630829015544 -0.178199481865285 -0.0349028497409326 -0.127089378238342 -0.186256476683938 -0.0683523316062176
0.294 -0.0948782383419689 -0.0974948186528497 0.143380829015544 -0.146049222797927 -0.17729274611399 -0.0325841968911917 -0.127133419689119 -0.185880829015544 -0.0663743523316062
0.297 -0.0938795336787565 -0.0958031088082902 0.14589378238342 -0.14580310880829 -0.176373056994819 -0.0302655440414508 -0.127178756476684 -0.185518134715026 -0.0643963730569948
0.3 -0.0928808290155441 -0.0941113989637306 0.148406735751295 -0.145544041450777 -0.175466321243523 -0.0279468911917098 -0.127222797927461 -0.185142487046632 -0.0624183937823834
0.303 -0.091880829015544 -0.092419689119171 0.150906735751295 -0.14529792746114 -0.174546632124352 -0.0256269430051813 -0.127240932642487 -0.184753886010363 -0.0604093264248705
0.306 -0.0908821243523316 -0.0907279792746114 0.153419689119171 -0.145038860103627 -0.173639896373057 -0.0233082901554404 -0.127246113989637 -0.184365284974093 -0.0583860103626943
0.309 -0.0898199481865285 -0.0889261658031088 0.156113989637306 -0.14479274611399 -0.172733160621762 -0.0209896373056995 -0.127251295336788 -0.183963730569948 -0.0563639896373057
0.312 -0.0887422279792746 -0.0870997409326425 0.158860103626943 -0.144533678756477 -0.171813471502591 -0.0186709844559586 -0.127256476683938 -0.183562176165803 -0.0543406735751295
0.315 -0.0876645077720207 -0.0852733160621762 0.161593264248705 -0.144248704663212 -0.170854922279793 -0.0162564766839378 -0.127261658031088 -0.183173575129534 -0.0523186528497409
0.318 -0.0865867875647668 -0.0834468911917098 0.164339378238342 -0.143924870466321 -0.169870466321244 -0.0137953367875648 -0.127252590673575 -0.182772020725389 -0.0502759067357513
0.321 -0.085509067357513 -0.0816204663212435 0.167072538860104 -0.14360103626943 -0.16889896373057 -0.0113349740932643 -0.127224093264249 -0.182344559585492 -0.0482072538860104
0.324 -0.0844300518134715 -0.0797940414507772 0.169818652849741 -0.143290155440415 -0.167914507772021 -0.00887448186528497 -0.127195595854922 -0.181930051813472 -0.0461373056994819
0.327 -0.0833523316062176 -0.0779676165803109 0.172551813471503 -0.142966321243523 -0.166930051813471 -0.00641386010362694 -0.127167098445596 -0.181502590673575 -0.0440686528497409
0.33 -0.0822746113989637 -0.0761411917098446 0.17529792746114 -0.142655440414508 -0.165958549222798 -0.00395323834196891 -0.127138601036269 -0.181088082901554 -0.0419987046632124
0.333 -0.0811968911917098 -0.0743147668393783 0.178044041450777 -0.142331606217617 -0.164974093264249 -0.00149261658031088 -0.127110103626943 -0.180660621761658 -0.0399300518134715
0.336 -0.080119170984456 -0.0724883419689119 0.180777202072539 -0.142020725388601 -0.163989637305699 0.000967914507772021 -0.127054404145078 -0.180220207253886 -0.0378121761658031
0.339 -0.0790414507772021 -0.0706619170984456 0.183523316062176 -0.14169689119171 -0.163018134715026 0.00342849740932642 -0.126997409326425 -0.179766839378238 -0.0356930051813472
0.342 -0.0779637305699482 -0.0688341968911917 0.186256476683938 -0.141373056994819 -0.162033678756477 0.00588911917098446 -0.126940414507772 -0.179313471502591 -0.0335751295336788
0.345 -0.0768860103626943 -0.0670077720207254 0.189002590673575 -0.141062176165803 -0.161049222797927 0.00835582901554404 -0.126883419689119 -0.178873056994819 -0.0314572538860104
0.348 -0.0758082901554404 -0.0651813471502591 0.191748704663212 -0.140673575129534 -0.16 0.0109762953367876 -0.126826424870466 -0.178419689119171 -0.029339378238342
0.351 -0.0747305699481865 -0.0633549222797927 0.194481865284974 -0.14029792746114 -0.158937823834197 0.0135971502590674 -0.126757772020725 -0.177966321243523 -0.0271968911917098
0.354 -0.0736528497409326 -0.0615284974093264 0.197227979274611 -0.13990932642487 -0.157888601036269 0.0162176165803109 -0.126677461139896 -0.177487046632124 -0.0250284974093264
0.357 -0.0725751295336788 -0.0597020725388601 0.199961139896373 -0.139533678756477 -0.156826424870466 0.0188367875647668 -0.12659585492228 -0.177007772020725 -0.0228588082901554
0.36 -0.0714974093264249 -0.0578756476683938 0.20270725388601 -0.139145077720207 -0.155764248704663 0.0214572538860104 -0.126515544041451 -0.176528497409326 -0.0206891191709845
0.363 -0.070419689119171 -0.0560492227979275 0.205453367875648 -0.138769430051813 -0.154715025906736 0.0240777202072539 -0.126433937823834 -0.176049222797927 -0.0185194300518135
0.366 -0.0693419689119171 -0.0542227979274611 0.208186528497409 -0.138380829015544 -0.153652849740933 0.0266981865284974 -0.126353626943005 -0.175569948186528 -0.0163510362694301
0.369 -0.0682318652849741 -0.0523406735751295 0.211023316062176 -0.13800518134715 -0.152603626943005 0.0293186528497409 -0.12625518134715 -0.175077720207254 -0.0141347150259067
0.372 -0.0670569948186529 -0.050339378238342 0.214041450777202 -0.137616580310881 -0.151541450777202 0.0319391191709845 -0.126152849740933 -0.174559585492228 -0.0119107512953368
0.375 -0.0658821243523316 -0.048339378238342 0.217059585492228 -0.137240932642487 -0.150492227979275 0.034559585492228 -0.126050518134715 -0.174054404145078 -0.00968626943005181
0.378 -0.0647072538860104 -0.046339378238342 0.220077720207254 -0.136865284974093 -0.149430051813471 0.0371800518134715 -0.125949481865285 -0.173549222797927 -0.0074619170984456
0.381 -0.0635323834196891 -0.0443380829015544 0.22309585492228 -0.136411917098446 -0.148290155440415 0.039979274611399 -0.125847150259067 -0.173031088082902 -0.00523756476683938
0.384 -0.0623575129533679 -0.0423380829015544 0.226113989637306 -0.135971502590674 -0.147137305699482 0.0427810880829016 -0.125743523316062 -0.172525906735751 -0.00300686528497409
0.387 -0.0611813471502591 -0.0403367875647668 0.229132124352332 -0.135518134715026 -0.145997409326425 0.0455816062176166 -0.125623056994819 -0.171981865284974 -0.000722694300518135
0.39 -0.0600064766839378 -0.0383367875647668 0.232150259067358 -0.135077720207254 -0.144857512953368 0.0483821243523316 -0.125502590673575 -0.171437823834197 0.00156152849740933
0.393 -0.0588316062176166 -0.0363367875647668 0.235168393782383 -0.134624352331606 -0.143704663212435 0.0511826424870466 -0.125383419689119 -0.17089378238342 0.00384572538860104
0.396 -0.0576567357512953 -0.0343354922279793 0.238186528497409 -0.134183937823834 -0.142564766839378 0.0539831606217617 -0.125262953367876 -0.170349740932642 0.00612992227979275
0.399 -0.0564818652849741 -0.0323354922279793 0.241204663212435 -0.133730569948187 -0.141411917098446 0.0567836787564767 -0.125142487046632 -0.169805699481865 0.00841411917098446
0.402 -0.0553069948186529 -0.0303354922279793 0.244235751295337 -0.133290155440415 -0.140272020725389 0.0595841968911917 -0.125018134715026 -0.169248704663212 0.0107172279792746
0.405 -0.054130829015544 -0.0283341968911917 0.247253886010363 -0.132836787564767 -0.139119170984456 0.0623847150259067 -0.124882124352332 -0.168665803108808 0.0130673575129534
0.408 -0.0529559585492228 -0.0263341968911917 0.250272020725389 -0.132396373056995 -0.137979274611399 0.0651852331606218 -0.124746113989637 -0.168082901554404 0.0154170984455959
0.411 -0.0517810880829016 -0.0243341968911917 0.253290155440414 -0.131955958549223 -0.136839378238342 0.0679857512953368 -0.124610103626943 -0.1675 0.0177668393782383
0.414 -0.0506062176165803 -0.0223329015544041 0.25630829015544 -0.131463730569948 -0.135621761658031 0.0709145077720207 -0.124474093264249 -0.166930051813471 0.0201178756476684
0.417 -0.0494313471502591 -0.0203329015544041 0.259326424870466 -0.130945595854922 -0.134378238341969 0.0739183937823834 -0.124338082901554 -0.166347150259067 0.0224676165803109
0.42 -0.0482564766839378 -0.0183329015544041 0.262344559585492 -0.130427461139896 -0.133121761658031 0.0769235751295337 -0.12419689119171 -0.165738341968912 0.0248471502590674
0.423 -0.047080310880829 -0.0163316062176166 0.265362694300518 -0.12990932642487 -0.131865284974093 0.0799274611398964 -0.124046632124352 -0.165116580310881 0.0272694300518135
0.426 -0.0459054404145078 -0.0143316062176166 0.268380829015544 -0.129392487046632 -0.130621761658031 0.0829326424870466 -0.123895077720207 -0.164481865284974 0.0296930051813471
0.429 -0.0447305699481865 -0.0123310880829016 0.27139896373057 -0.128876943005181 -0.129366580310881 0.0859365284974093 -0.12374481865285 -0.163860103626943 0.0321165803108808
0.432 -0.0435556994818653 -0.0103306994818653 0.274417098445596 -0.128360103626943 -0.128115284974093 0.0889417098445596 -0.123594559585492 -0.163238341968912 0.0345401554404145
0.435 -0.0422940414507772 -0.00817966321243523 0.277642487046632 -0.127843264248705 -0.126863989637306 0.0919468911917098 -0.123444300518135 -0.162603626943005 0.0369637305699482
0.438 -0.0409831606217617 -0.00594520725388601 0.280984455958549 -0.127326424870466 -0.125612694300518 0.0949507772020725 -0.123287564766839 -0.161955958549223 0.0394235751295337
0.441 -0.0396735751295337 -0.00371062176165803 0.284313471502591 -0.126809585492228 -0.124361398963731 0.0979559585492228 -0.123123056994819 -0.161282383419689 0.0419287564766839
0.444 -0.0383639896373057 -0.00147616580310881 0.287655440414508 -0.12629274611399 -0.123110103626943 0.100959844559585 -0.122958549222798 -0.160608808290155 0.0444339378238342
0.447 -0.0370544041450777 0.000758406735751295 0.290984455958549 -0.125775906735751 -0.121858808290155 0.103966321243523 -0.12279274611399 -0.159922279792746 0.0469391191709845
0.45 -0.0357435233160622 0.00299287564766839 0.294326424870466 -0.125177461139896 -0.120476683937824 0.10720207253886 -0.122628238341969 -0.159248704663212 0.0494455958549223
0.453 -0.0344339378238342 0.00522746113989637 0.297655440414508 -0.124579015544041 -0.119094559585492 0.110437823834197 -0.122463730569948 -0.158575129533679 0.0519507772020725
0.456 -0.0331243523316062 0.00746204663212435 0.300997409326425 -0.123980569948187 -0.117713730569948 0.113673575129534 -0.12229274611399 -0.157875647668394 0.0544974093264249
0.459 -0.0318134715025907 0.00969650259067358 0.304326424870466 -0.123382124352332 -0.116331606217617 0.11690932642487 -0.122112694300518 -0.157137305699482 0.0570945595854922
0.462 -0.0305038860103627 0.0119310880829016 0.307668393782383 -0.122784974093264 -0.114949481865285 0.120145077720207 -0.121932642487047 -0.15639896373057 0.0596917098445596
0.465 -0.0291943005181347 0.0141658031088083 0.310997409326425 -0.122186528497409 -0.113567357512953 0.123380829015544 -0.121752590673575 -0.155660621761658 0.062288860103627
0.468 -0.0278834196891192 0.0164002590673575 0.314339378238342 -0.121588082901554 -0.112186528497409 0.126616580310881 -0.121573834196891 -0.154922279792746 0.0648860103626943
0.471 -0.0265738341968912 0.0186347150259067 0.317668393782383 -0.120989637305699 -0.110804404145078 0.129857512953368 -0.12139378238342 -0.154183937823834 0.0674831606217617
0.474 -0.0252642487046632 0.020869170984456 0.321010362694301 -0.120391191709845 -0.109422279792746 0.133082901554404 -0.121205958549223 -0.153419689119171 0.0701230569948187
0.477 -0.0239546632124352 0.0231036269430052 0.324339378238342 -0.11979274611399 -0.108041450777202 0.136321243523316 -0.121006476683938 -0.152616580310881 0.0728238341968912
0.48 -0.0226437823834197 0.0253380829015544 0.327681347150259 -0.119194300518135 -0.10665932642487 0.139559585492228 -0.12080829015544 -0.151813471502591 0.0755233160621762
0.483 -0.0213341968911917 0.0275725388601036 0.331010362694301 -0.118571243523316 -0.105237046632124 0.142862694300518 -0.120610103626943 -0.151010362694301 0.0782227979274611
0.486 -0.0200246113989637 0.0298069948186528 0.334352331606218 -0.117869170984456 -0.103690414507772 0.146347150259067 -0.120410621761658 -0.15020725388601 0.0809222797927461
0.489 -0.0187137305699482 0.0320414507772021 0.337681347150259 -0.117168393782383 -0.102142487046632 0.149844559585492 -0.120212435233161 -0.149391191709845 0.0836217616580311
0.492 -0.0174041450777202 0.0342759067357513 0.341023316062176 -0.116466321243523 -0.100594559585492 0.153341968911917 -0.120003886010363 -0.148562176165803 0.0863626943005181
0.495 -0.0160945595854922 0.0365103626943005 0.344352331606218 -0.115765544041451 -0.0990479274611399 0.156839378238342 -0.119781088082902 -0.147668393782383 0.0891761658031088
0.498 -0.0147836787564767 0.0387461139896373 0.347694300518135 -0.115063471502591 -0.0975 0.160336787564767 -0.119556994818653 -0.146787564766839 0.0919896373056995
0.501 -0.0134028497409326 0.0410906735751295 0.351139896373057 -0.114362694300518 -0.0959520725388601 0.163834196891192 -0.119332901554404 -0.14589378238342 0.0948031088082901
0.504 -0.0118784974093264 0.0436593264248705 0.354818652849741 -0.113660621761658 -0.0944054404145078 0.167318652849741 -0.119108808290155 -0.145 0.0976165803108808
0.507 -0.0103541450777202 0.0462266839378238 0.358510362694301 -0.112959844559585 -0.0928575129533679 0.170816062176166 -0.118884715025907 -0.144119170984456 0.100430051813471