/*--------------------------------*- C++ -*----------------------------------*\
| =========                 |                                                 |
| \\      /  F ield         | OpenFOAM: The Open Source CFD Toolbox           |
|  \\    /   O peration     | Version:  2312                                  |
|   \\  /    A nd           | Website:  www.openfoam.com                      |
|    \\/     M anipulation  |                                                 |
\*---------------------------------------------------------------------------*/
FoamFile
{
    version     2.0;
    format      binary;
    arch        "LSB;label=32;scalar=64";
    class       polyBoundaryMesh;
    location    "constant/polyMesh";
    object      boundary;
}
// * * * * * * * * * * * * * * * * * * * * * * * * * * * * * * * * * * * * * //

8
(
    wall_hor
    {
        type            wall;
	inGroups        1(wall);
        nFaces          3960;
        startFace       697592;
    }
    wall_ver
    {
        type            wall;
	inGroups        1(wall);
        nFaces          960;
        startFace       701552;
    }
    outlet
    {
        type            patch;
        nFaces          1920;
        startFace       702512;
    }
    back
    {
        type            cyclic;
        inGroups        1(cyclic);
        nFaces          5928;
        startFace       704432;
        neighbourPatch  front;
    }
    top
    {
        type            symmetryPlane;
        nFaces          5920;
        startFace       710360;
    }
    wall_in
    {
	type            wall;
        inGroups        1(wall);
        nFaces          1960;
        startFace       716280;
    }
    inlet
    {
        type            patch;
        nFaces          960;
        startFace       718240;
    }
    front
    {
        type            cyclic;
        inGroups        1(cyclic);
	nFaces          5928;
        startFace       719200;
	neighbourPatch  back;
    }
)

// ************************************************************************* //
